[Molden Format]
[GTO]

    1 0
 s   3 1.00
       3.4252509    0.1543289700
       0.6239137    0.5353281400
       0.1688554    0.4446345400

    2 0
 s   3 1.00
       3.4252509    0.1543289700
       0.6239137    0.5353281400
       0.1688554    0.4446345400
[SCFCONV]
scf-first  1  THROUGH   1
       -0.5959706517

[5D]

[MO]
Sym= A  
Ene=   -0.1293
Spin= Alpha
Occup= 2.0000
    1        0.707092
    2        0.707092
Sym= A  
Ene=   -0.0292
Spin= Alpha
Occup= 0.0000
    1       -0.707122
    2        0.707122
[Atoms] AU
H1         1     1         0.0000000000         5.0000000000         0.0000000000
H2         2     1         0.0000000000        -5.0000000000         0.0000000000
